$START,13828,2020-06-16 16:22
$START,13527,2020-06-16 16:30
$END,13527,40913439,27 (R2020) Update 1,2020-06-16 16:45,[matlab:simulink]
$END,13828,40913439,27 (R2020) Update 1,2020-06-16 18:05,[matlab]
$START,17525,2020-06-17 08:19
