$START,1444,2020-06-13 12:13
$START,1500,2020-06-13 15:07
$END,1500,40913439,27 (R2020) Update 1,2020-06-13 15:08,[matlab:simulink]
$END,1444,40913439,27 (R2020) Update 1,2020-06-13 17:02,[matlab]
$START,1826,2020-06-14 08:19
$START,1111,2020-06-14 09:00
$END,1111,40913439,27 (R2020) Update 1,2020-06-15 10:00,[matlab:coder]

