$START,13828,40913439,27 (R2020) Update 1,16.06.2020 16:22
$START,13527,40913439,27 (R2020) Update 1,16.06.2020 16:30
$END,13527,40913439,27 (R2020) Update 1,16.06.2020 16:45,[matlab:simulink]
$END,13828,40913439,27 (R2020) Update 1,16.06.2020 18:05,[matlab]
$START,17525,40913439,27 (R2020) Update 1,17.06.2020 08:19
